name,formula,neutralMass,SMILES,InChIKey,adduct,mz,rt,intControl,logP,comment,hasFragments,fragments_mz,fragments_int,fragments_formula,fragments_pre
Carbamazepine,C15H12N2O,236.094955,c1ccc2c(c1)C=Cc3ccccc3N2C(=N)O,FFGPTBGBLSHEPO-UHFFFAOYSA-N,[M+H]+,237.102231,844.8,665026.4583,0.79,,FALSE,,,,
Terbutryn,C10H19N5S,241.1361,CC/N=c\1/nc([nH]c(n1)SC)NC(C)(C)C,IROINLKCQGIITA-UHFFFAOYSA-N,[M+H]+,242.143376,890.4,3011202,3.74,,FALSE,,,,
Clarithromycin,C38H69NO13,747.476868,CC[C@@H]1[C@@]([C@@H]([C@H](C(=O)[C@@H](C[C@@]([C@@H]([C@H]([C@@H]([C@H](C(=O)O1)C)O[C@H]2C[C@@]([C@H]([C@@H](O2)C)O)(C)OC)C)O[C@H]3[C@@H]([C@H](C[C@H](O3)C)N(C)C)O)(C)OC)C)C)O)(C)O,AGOYDEPGAOXOCK-KCBOHYOISA-N,[M+H]+,748.484144,896.4,1168046.208,1.66,,FALSE,,,,
Losartan,C22H23ClN6O,422.1622,CCCCc1nc(c(n1Cc2ccc(cc2)c3ccccc3c4[nH]nnn4)CO)Cl,PSIFNNKUMBGKDQ-UHFFFAOYSA-N,[M+H]+,423.169476,902.4,616894.75,4.64,,FALSE,,,,
Candesartan,C24H20N6O3,440.1597,CCOc1nc2cccc(c2n1Cc3ccc(cc3)c4ccccc4c5[nH]nnn5)C(=O)O,HTQMVQVXFRQIKW-UHFFFAOYSA-N,[M+H]+,441.166976,916.2,292179.8438,4.79,,FALSE,,,,
Isoproturon,C12H18N2O,206.1419,CC(C)c1ccc(cc1)NC(=O)N(C)C,PUIYMUZLKQOUOZ-UHFFFAOYSA-N,[M+H]+,207.149176,932.4,2130726.75,2.87,,FALSE,,,,
Diuron,C9H10Cl2N2O,232.017014,CN(C)C(O)=NC1C=C(Cl)C(Cl)=CC=1,XMTQQYYKAHVGBJ-UHFFFAOYSA-N,[M+H]+,233.02429,940.8,335039.2188,2.68,,FALSE,,,,